   2   2   1   0
  0.8102903E+01  0.2682673E-09  0.2682673E-09  0.2600186E-09  0.5000000E-15
  1.000000000000000E-004
  CAR 
 CrN                                     
    622.25886270    -38.94156957 2501      9.33718774      1.00000000
    -38.942  0.0000E+00  0.0000E+00
    -38.677  0.0000E+00  0.0000E+00
    -38.413  0.0000E+00  0.0000E+00
    -38.148  0.0000E+00  0.0000E+00
    -37.884  0.0000E+00  0.0000E+00
    -37.619  0.0000E+00  0.0000E+00
    -37.355  0.0000E+00  0.0000E+00
    -37.090  0.0000E+00  0.0000E+00
    -36.826  0.0000E+00  0.0000E+00
    -36.561  0.0000E+00  0.0000E+00
    -36.297  0.0000E+00  0.0000E+00
    -36.032  0.0000E+00  0.0000E+00
    -35.768  0.0000E+00  0.0000E+00
    -35.503  0.0000E+00  0.0000E+00
    -35.239  0.0000E+00  0.0000E+00
    -34.974  0.0000E+00  0.0000E+00
    -34.710  0.0000E+00  0.0000E+00
    -34.445  0.0000E+00  0.0000E+00
    -34.181  0.0000E+00  0.0000E+00
    -33.916  0.0000E+00  0.0000E+00
    -33.652  0.0000E+00  0.0000E+00
    -33.387  0.0000E+00  0.0000E+00
    -33.123  0.0000E+00  0.0000E+00
    -32.859  0.0000E+00  0.0000E+00
    -32.594  0.0000E+00  0.0000E+00
    -32.330  0.0000E+00  0.0000E+00
    -32.065  0.0000E+00  0.0000E+00
    -31.801  0.0000E+00  0.0000E+00
    -31.536  0.0000E+00  0.0000E+00
    -31.272  0.0000E+00  0.0000E+00
    -31.007  0.0000E+00  0.0000E+00
    -30.743  0.0000E+00  0.0000E+00
    -30.478  0.0000E+00  0.0000E+00
    -30.214  0.0000E+00  0.0000E+00
    -29.949  0.0000E+00  0.0000E+00
    -29.685  0.0000E+00  0.0000E+00
    -29.420  0.0000E+00  0.0000E+00
    -29.156  0.0000E+00  0.0000E+00
    -28.891  0.0000E+00  0.0000E+00
    -28.627  0.0000E+00  0.0000E+00
    -28.362  0.0000E+00  0.0000E+00
    -28.098  0.0000E+00  0.0000E+00
    -27.833  0.0000E+00  0.0000E+00
    -27.569  0.0000E+00  0.0000E+00
    -27.304  0.0000E+00  0.0000E+00
    -27.040  0.0000E+00  0.0000E+00
    -26.775  0.0000E+00  0.0000E+00
    -26.511  0.0000E+00  0.0000E+00
    -26.247  0.0000E+00  0.0000E+00
    -25.982  0.0000E+00  0.0000E+00
    -25.718  0.0000E+00  0.0000E+00
    -25.453  0.0000E+00  0.0000E+00
    -25.189  0.0000E+00  0.0000E+00
    -24.924  0.0000E+00  0.0000E+00
    -24.660  0.0000E+00  0.0000E+00
    -24.395  0.0000E+00  0.0000E+00
    -24.131  0.0000E+00  0.0000E+00
    -23.866  0.0000E+00  0.0000E+00
    -23.602  0.0000E+00  0.0000E+00
    -23.337  0.0000E+00  0.0000E+00
    -23.073  0.0000E+00  0.0000E+00
    -22.808  0.0000E+00  0.0000E+00
    -22.544  0.0000E+00  0.0000E+00
    -22.279  0.0000E+00  0.0000E+00
    -22.015  0.0000E+00  0.0000E+00
    -21.750  0.0000E+00  0.0000E+00
    -21.486  0.0000E+00  0.0000E+00
    -21.221  0.0000E+00  0.0000E+00
    -20.957  0.0000E+00  0.0000E+00
    -20.692  0.0000E+00  0.0000E+00
    -20.428  0.0000E+00  0.0000E+00
    -20.163  0.0000E+00  0.0000E+00
    -19.899  0.0000E+00  0.0000E+00
    -19.635  0.0000E+00  0.0000E+00
    -19.370  0.0000E+00  0.0000E+00
    -19.106  0.0000E+00  0.0000E+00
    -18.841  0.0000E+00  0.0000E+00
    -18.577  0.0000E+00  0.0000E+00
    -18.312  0.0000E+00  0.0000E+00
    -18.048  0.0000E+00  0.0000E+00
    -17.783  0.0000E+00  0.0000E+00
    -17.519  0.0000E+00  0.0000E+00
    -17.254  0.0000E+00  0.0000E+00
    -16.990  0.0000E+00  0.0000E+00
    -16.725  0.0000E+00  0.0000E+00
    -16.461  0.0000E+00  0.0000E+00
    -16.196  0.0000E+00  0.0000E+00
    -15.932  0.0000E+00  0.0000E+00
    -15.667  0.0000E+00  0.0000E+00
    -15.403  0.0000E+00  0.0000E+00
    -15.138  0.0000E+00  0.0000E+00
    -14.874  0.0000E+00  0.0000E+00
    -14.609  0.0000E+00  0.0000E+00
    -14.345  0.0000E+00  0.0000E+00
    -14.080  0.0000E+00  0.0000E+00
    -13.816  0.0000E+00  0.0000E+00
    -13.551  0.0000E+00  0.0000E+00
    -13.287  0.0000E+00  0.0000E+00
    -13.023  0.0000E+00  0.0000E+00
    -12.758  0.0000E+00  0.0000E+00
    -12.494  0.0000E+00  0.0000E+00
    -12.229  0.0000E+00  0.0000E+00
    -11.965  0.0000E+00  0.0000E+00
    -11.700  0.0000E+00  0.0000E+00
    -11.436  0.0000E+00  0.0000E+00
    -11.171  0.0000E+00  0.0000E+00
    -10.907  0.0000E+00  0.0000E+00
    -10.642  0.0000E+00  0.0000E+00
    -10.378  0.0000E+00  0.0000E+00
    -10.113  0.0000E+00  0.0000E+00
     -9.849  0.0000E+00  0.0000E+00
     -9.584  0.0000E+00  0.0000E+00
     -9.320  0.3306E-10  0.8743E-11
     -9.055  0.8192E-03  0.2167E-03
     -8.791  0.2085E+00  0.5537E-01
     -8.526  0.4059E+00  0.1627E+00
     -8.262  0.2353E+00  0.2250E+00
     -7.997  0.1879E+00  0.2746E+00
     -7.733  0.1666E+00  0.3187E+00
     -7.468  0.1567E+00  0.3601E+00
     -7.204  0.1527E+00  0.4005E+00
     -6.939  0.1568E+00  0.4420E+00
     -6.675  0.1749E+00  0.4883E+00
     -6.411  0.4222E+00  0.5999E+00
     -6.146  0.1051E+01  0.8780E+00
     -5.882  0.1398E+01  0.1248E+01
     -5.617  0.1828E+01  0.1731E+01
     -5.353  0.9768E+00  0.1989E+01
     -5.088  0.4021E-01  0.2000E+01
     -4.824  0.2405E-06  0.2000E+01
     -4.559  0.0000E+00  0.2000E+01
     -4.295  0.0000E+00  0.2000E+01
     -4.030  0.0000E+00  0.2000E+01
     -3.766  0.0000E+00  0.2000E+01
     -3.501  0.0000E+00  0.2000E+01
     -3.237  0.0000E+00  0.2000E+01
     -2.972  0.0000E+00  0.2000E+01
     -2.708  0.0000E+00  0.2000E+01
     -2.443  0.0000E+00  0.2000E+01
     -2.179  0.0000E+00  0.2000E+01
     -1.914  0.0000E+00  0.2000E+01
     -1.650  0.0000E+00  0.2000E+01
     -1.385  0.0000E+00  0.2000E+01
     -1.121  0.0000E+00  0.2000E+01
     -0.856  0.0000E+00  0.2000E+01
     -0.592  0.0000E+00  0.2000E+01
     -0.327  0.6498E-09  0.2000E+01
     -0.063  0.2726E-02  0.2001E+01
      0.201  0.2433E+00  0.2065E+01
      0.466  0.3077E+00  0.2146E+01
      0.730  0.6824E+00  0.2327E+01
      0.995  0.9051E+00  0.2566E+01
      1.259  0.5988E+00  0.2725E+01
      1.524  0.6240E+00  0.2890E+01
      1.788  0.1018E+01  0.3159E+01
      2.053  0.1464E+01  0.3546E+01
      2.317  0.1233E+01  0.3872E+01
      2.582  0.8216E+00  0.4090E+01
      2.846  0.8197E+00  0.4306E+01
      3.111  0.5126E+00  0.4442E+01
      3.375  0.5695E+00  0.4593E+01
      3.640  0.6984E+00  0.4777E+01
      3.904  0.6350E+00  0.4945E+01
      4.169  0.9703E+00  0.5202E+01
      4.433  0.1228E+01  0.5527E+01
      4.698  0.1304E+01  0.5871E+01
      4.962  0.1478E+01  0.6262E+01
      5.227  0.1615E+01  0.6689E+01
      5.491  0.1803E+01  0.7166E+01
      5.756  0.1010E+01  0.7433E+01
      6.020  0.1026E+01  0.7705E+01
      6.285  0.1118E+01  0.8001E+01
      6.549  0.1056E+01  0.8280E+01
      6.814  0.7626E+00  0.8482E+01
      7.078  0.7439E+00  0.8678E+01
      7.342  0.8055E+00  0.8891E+01
      7.607  0.1213E+01  0.9212E+01
      7.871  0.1054E+01  0.9491E+01
      8.136  0.1344E+01  0.9847E+01
      8.400  0.1638E+01  0.1028E+02
      8.665  0.1216E+01  0.1060E+02
      8.929  0.5061E+00  0.1074E+02
      9.194  0.6489E+00  0.1091E+02
      9.458  0.6628E+00  0.1108E+02
      9.723  0.8560E+00  0.1131E+02
      9.987  0.1749E+01  0.1177E+02
     10.252  0.2058E+01  0.1232E+02
     10.516  0.1625E+01  0.1275E+02
     10.781  0.2097E+01  0.1330E+02
     11.045  0.2320E+01  0.1391E+02
     11.310  0.1897E+01  0.1441E+02
     11.574  0.1532E+01  0.1482E+02
     11.839  0.1178E+01  0.1513E+02
     12.103  0.1948E+01  0.1565E+02
     12.368  0.1952E+01  0.1616E+02
     12.632  0.1492E+01  0.1656E+02
     12.897  0.1298E+01  0.1690E+02
     13.161  0.1534E+01  0.1731E+02
     13.426  0.4083E+00  0.1741E+02
     13.690  0.3990E+00  0.1752E+02
     13.954  0.2895E+00  0.1760E+02
     14.219  0.2984E+00  0.1768E+02
     14.483  0.5264E+00  0.1781E+02
     14.748  0.4744E+00  0.1794E+02
     15.012  0.2253E+00  0.1800E+02
     15.277  0.4567E-03  0.1800E+02
     15.541  0.1368E+00  0.1804E+02
     15.806  0.2769E+00  0.1811E+02
     16.070  0.1571E+00  0.1815E+02
     16.335  0.1325E+00  0.1819E+02
     16.599  0.1182E+00  0.1822E+02
     16.864  0.1108E+00  0.1825E+02
     17.128  0.1409E+00  0.1828E+02
     17.393  0.2914E+00  0.1836E+02
     17.657  0.2573E+00  0.1843E+02
     17.922  0.6040E+00  0.1859E+02
     18.186  0.5967E+00  0.1875E+02
     18.451  0.4933E+00  0.1888E+02
     18.715  0.6179E+00  0.1904E+02
     18.980  0.4950E+00  0.1917E+02
     19.244  0.4357E+00  0.1929E+02
     19.509  0.3653E+00  0.1938E+02
     19.773  0.2673E+00  0.1945E+02
     20.038  0.5393E+00  0.1960E+02
     20.302  0.5976E+00  0.1975E+02
     20.566  0.1902E+00  0.1980E+02
     20.831  0.3739E+00  0.1990E+02
     21.095  0.3964E+00  0.2001E+02
     21.360  0.4867E+00  0.2014E+02
     21.624  0.6956E+00  0.2032E+02
     21.889  0.5127E+00  0.2046E+02
     22.153  0.5795E+00  0.2061E+02
     22.418  0.3899E+00  0.2071E+02
     22.682  0.3448E+00  0.2080E+02
     22.947  0.3436E+00  0.2090E+02
     23.211  0.2930E+00  0.2097E+02
     23.476  0.2615E+00  0.2104E+02
     23.740  0.4966E+00  0.2117E+02
     24.005  0.9938E+00  0.2144E+02
     24.269  0.1174E+01  0.2175E+02
     24.534  0.8195E+00  0.2196E+02
     24.798  0.7192E+00  0.2215E+02
     25.063  0.5537E+00  0.2230E+02
     25.327  0.9391E+00  0.2255E+02
     25.592  0.9949E+00  0.2281E+02
     25.856  0.9468E+00  0.2306E+02
     26.121  0.9428E+00  0.2331E+02
     26.385  0.7305E+00  0.2350E+02
     26.650  0.7133E+00  0.2369E+02
     26.914  0.1005E+01  0.2396E+02
     27.178  0.8136E+00  0.2417E+02
     27.443  0.8729E+00  0.2440E+02
     27.707  0.8840E+00  0.2464E+02
     27.972  0.7171E+00  0.2483E+02
     28.236  0.4954E+00  0.2496E+02
     28.501  0.4714E+00  0.2508E+02
     28.765  0.4631E+00  0.2521E+02
     29.030  0.6999E+00  0.2539E+02
     29.294  0.5474E+00  0.2554E+02
     29.559  0.7488E+00  0.2573E+02
     29.823  0.1161E+01  0.2604E+02
     30.088  0.6206E+00  0.2621E+02
     30.352  0.5561E+00  0.2635E+02
     30.617  0.4895E+00  0.2648E+02
     30.881  0.4867E+00  0.2661E+02
     31.146  0.5932E+00  0.2677E+02
     31.410  0.9582E+00  0.2702E+02
     31.675  0.1084E+01  0.2731E+02
     31.939  0.5731E+00  0.2746E+02
     32.204  0.5694E+00  0.2761E+02
     32.468  0.6199E+00  0.2777E+02
     32.733  0.4682E+00  0.2790E+02
     32.997  0.3475E+00  0.2799E+02
     33.262  0.4370E+00  0.2811E+02
     33.526  0.5262E+00  0.2824E+02
     33.790  0.6795E+00  0.2842E+02
     34.055  0.7293E+00  0.2862E+02
     34.319  0.6871E+00  0.2880E+02
     34.584  0.5020E+00  0.2893E+02
     34.848  0.4826E+00  0.2906E+02
     35.113  0.5284E+00  0.2920E+02
     35.377  0.5618E+00  0.2935E+02
     35.642  0.7573E+00  0.2955E+02
     35.906  0.7562E+00  0.2975E+02
     36.171  0.4872E+00  0.2988E+02
     36.435  0.7773E+00  0.3008E+02
     36.700  0.8975E+00  0.3032E+02
     36.964  0.7070E+00  0.3051E+02
     37.229  0.8276E+00  0.3073E+02
     37.493  0.8321E+00  0.3095E+02
     37.758  0.5077E+00  0.3108E+02
     38.022  0.4997E+00  0.3121E+02
     38.287  0.7521E+00  0.3141E+02
     38.551  0.9093E+00  0.3165E+02
     38.816  0.8172E+00  0.3187E+02
     39.080  0.9901E+00  0.3213E+02
     39.345  0.7120E+00  0.3232E+02
     39.609  0.8052E+00  0.3253E+02
     39.874  0.7590E+00  0.3273E+02
     40.138  0.1259E+01  0.3306E+02
     40.402  0.1130E+01  0.3336E+02
     40.667  0.7413E+00  0.3356E+02
     40.931  0.4985E+00  0.3369E+02
     41.196  0.4501E+00  0.3381E+02
     41.460  0.4506E+00  0.3393E+02
     41.725  0.4878E+00  0.3406E+02
     41.989  0.4837E+00  0.3419E+02
     42.254  0.4731E+00  0.3431E+02
     42.518  0.5553E+00  0.3446E+02
     42.783  0.4716E+00  0.3458E+02
     43.047  0.4456E+00  0.3470E+02
     43.312  0.5877E+00  0.3486E+02
     43.576  0.7852E+00  0.3506E+02
     43.841  0.9500E+00  0.3532E+02
     44.105  0.7042E+00  0.3550E+02
     44.370  0.6692E+00  0.3568E+02
     44.634  0.7425E+00  0.3588E+02
     44.899  0.1160E+01  0.3618E+02
     45.163  0.1035E+01  0.3646E+02
     45.428  0.1010E+01  0.3672E+02
     45.692  0.1003E+01  0.3699E+02
     45.957  0.1050E+01  0.3727E+02
     46.221  0.8871E+00  0.3750E+02
     46.486  0.7650E+00  0.3770E+02
     46.750  0.8274E+00  0.3792E+02
     47.014  0.8885E+00  0.3816E+02
     47.279  0.8390E+00  0.3838E+02
     47.543  0.8027E+00  0.3859E+02
     47.808  0.1265E+01  0.3893E+02
     48.072  0.1165E+01  0.3923E+02
     48.337  0.1227E+01  0.3956E+02
     48.601  0.1116E+01  0.3985E+02
     48.866  0.1104E+01  0.4015E+02
     49.130  0.1206E+01  0.4046E+02
     49.395  0.1211E+01  0.4078E+02
     49.659  0.8641E+00  0.4101E+02
     49.924  0.8104E+00  0.4123E+02
     50.188  0.9189E+00  0.4147E+02
     50.453  0.9851E+00  0.4173E+02
     50.717  0.9860E+00  0.4199E+02
     50.982  0.9383E+00  0.4224E+02
     51.246  0.1060E+01  0.4252E+02
     51.511  0.1050E+01  0.4280E+02
     51.775  0.9483E+00  0.4305E+02
     52.040  0.1127E+01  0.4335E+02
     52.304  0.7693E+00  0.4355E+02
     52.569  0.9514E+00  0.4380E+02
     52.833  0.1402E+01  0.4417E+02
     53.098  0.9285E+00  0.4442E+02
     53.362  0.6043E+00  0.4458E+02
     53.626  0.8088E+00  0.4479E+02
     53.891  0.8581E+00  0.4502E+02
     54.155  0.1326E+01  0.4537E+02
     54.420  0.1066E+01  0.4565E+02
     54.684  0.1280E+01  0.4599E+02
     54.949  0.1337E+01  0.4634E+02
     55.213  0.1368E+01  0.4671E+02
     55.478  0.1802E+01  0.4718E+02
     55.742  0.2144E+01  0.4775E+02
     56.007  0.2429E+01  0.4839E+02
     56.271  0.2216E+01  0.4898E+02
     56.536  0.2509E+01  0.4964E+02
     56.800  0.2137E+01  0.5021E+02
     57.065  0.2083E+01  0.5076E+02
     57.329  0.3076E+01  0.5157E+02
     57.594  0.2088E+01  0.5212E+02
     57.858  0.2122E+01  0.5268E+02
     58.123  0.1536E+01  0.5309E+02
     58.387  0.1103E+01  0.5338E+02
     58.652  0.1545E+01  0.5379E+02
     58.916  0.2179E+01  0.5437E+02
     59.181  0.1394E+01  0.5474E+02
     59.445  0.1148E+01  0.5504E+02
     59.710  0.1631E+01  0.5547E+02
     59.974  0.1928E+01  0.5598E+02
     60.238  0.1452E+01  0.5636E+02
     60.503  0.1389E+01  0.5673E+02
     60.767  0.1114E+01  0.5703E+02
     61.032  0.1174E+01  0.5734E+02
     61.296  0.1608E+01  0.5776E+02
     61.561  0.2242E+01  0.5836E+02
     61.825  0.1789E+01  0.5883E+02
     62.090  0.1212E+01  0.5915E+02
     62.354  0.9421E+00  0.5940E+02
     62.619  0.1186E+01  0.5971E+02
     62.883  0.9006E+00  0.5995E+02
     63.148  0.8308E+00  0.6017E+02
     63.412  0.7078E+00  0.6036E+02
     63.677  0.1096E+01  0.6065E+02
     63.941  0.1204E+01  0.6097E+02
     64.206  0.8193E+00  0.6118E+02
     64.470  0.8197E+00  0.6140E+02
     64.735  0.1132E+01  0.6170E+02
     64.999  0.1227E+01  0.6202E+02
     65.264  0.9718E+00  0.6228E+02
     65.528  0.1540E+01  0.6269E+02
     65.793  0.9021E+00  0.6293E+02
     66.057  0.1357E+01  0.6328E+02
     66.322  0.1798E+01  0.6376E+02
     66.586  0.1335E+01  0.6411E+02
     66.850  0.1439E+01  0.6449E+02
     67.115  0.1188E+01  0.6481E+02
     67.379  0.9904E+00  0.6507E+02
     67.644  0.8745E+00  0.6530E+02
     67.908  0.6072E+00  0.6546E+02
     68.173  0.5398E+00  0.6560E+02
     68.437  0.5903E+00  0.6576E+02
     68.702  0.6511E+00  0.6593E+02
     68.966  0.6771E+00  0.6611E+02
     69.231  0.8593E+00  0.6634E+02
     69.495  0.7991E+00  0.6655E+02
     69.760  0.9914E+00  0.6681E+02
     70.024  0.8991E+00  0.6705E+02
     70.289  0.7632E+00  0.6725E+02
     70.553  0.7035E+00  0.6744E+02
     70.818  0.7635E+00  0.6764E+02
     71.082  0.6818E+00  0.6782E+02
     71.347  0.8778E+00  0.6805E+02
     71.611  0.8858E+00  0.6829E+02
     71.876  0.8711E+00  0.6852E+02
     72.140  0.7801E+00  0.6872E+02
     72.405  0.8899E+00  0.6896E+02
     72.669  0.9543E+00  0.6921E+02
     72.934  0.9152E+00  0.6945E+02
     73.198  0.8910E+00  0.6969E+02
     73.463  0.8755E+00  0.6992E+02
     73.727  0.8667E+00  0.7015E+02
     73.991  0.1177E+01  0.7046E+02
     74.256  0.1123E+01  0.7076E+02
     74.520  0.1095E+01  0.7105E+02
     74.785  0.9253E+00  0.7129E+02
     75.049  0.9801E+00  0.7155E+02
     75.314  0.9122E+00  0.7179E+02
     75.578  0.1284E+01  0.7213E+02
     75.843  0.1150E+01  0.7244E+02
     76.107  0.1269E+01  0.7277E+02
     76.372  0.1156E+01  0.7308E+02
     76.636  0.9183E+00  0.7332E+02
     76.901  0.9217E+00  0.7357E+02
     77.165  0.7138E+00  0.7375E+02
     77.430  0.7832E+00  0.7396E+02
     77.694  0.1107E+01  0.7425E+02
     77.959  0.1301E+01  0.7460E+02
     78.223  0.1080E+01  0.7488E+02
     78.488  0.6935E+00  0.7507E+02
     78.752  0.7859E+00  0.7527E+02
     79.017  0.8351E+00  0.7550E+02
     79.281  0.8516E+00  0.7572E+02
     79.546  0.7692E+00  0.7592E+02
     79.810  0.9207E+00  0.7617E+02
     80.075  0.1474E+01  0.7656E+02
     80.339  0.9922E+00  0.7682E+02
     80.603  0.8935E+00  0.7706E+02
     80.868  0.1311E+01  0.7740E+02
     81.132  0.9173E+00  0.7765E+02
     81.397  0.1096E+01  0.7794E+02
     81.661  0.9063E+00  0.7818E+02
     81.926  0.8867E+00  0.7841E+02
     82.190  0.1026E+01  0.7868E+02
     82.455  0.1018E+01  0.7895E+02
     82.719  0.1007E+01  0.7922E+02
     82.984  0.1067E+01  0.7950E+02
     83.248  0.1049E+01  0.7978E+02
     83.513  0.1044E+01  0.8005E+02
     83.777  0.7720E+00  0.8026E+02
     84.042  0.7095E+00  0.8044E+02
     84.306  0.8638E+00  0.8067E+02
     84.571  0.7808E+00  0.8088E+02
     84.835  0.8534E+00  0.8110E+02
     85.100  0.9815E+00  0.8136E+02
     85.364  0.1146E+01  0.8167E+02
     85.629  0.1153E+01  0.8197E+02
     85.893  0.7478E+00  0.8217E+02
     86.158  0.7351E+00  0.8236E+02
     86.422  0.8511E+00  0.8259E+02
     86.687  0.9092E+00  0.8283E+02
     86.951  0.9843E+00  0.8309E+02
     87.215  0.1074E+01  0.8337E+02
     87.480  0.8394E+00  0.8360E+02
     87.744  0.9362E+00  0.8384E+02
     88.009  0.9595E+00  0.8410E+02
     88.273  0.8033E+00  0.8431E+02
     88.538  0.9731E+00  0.8457E+02
     88.802  0.8890E+00  0.8480E+02
     89.067  0.9880E+00  0.8506E+02
     89.331  0.1211E+01  0.8538E+02
     89.596  0.1246E+01  0.8571E+02
     89.860  0.1062E+01  0.8599E+02
     90.125  0.9655E+00  0.8625E+02
     90.389  0.8615E+00  0.8648E+02
     90.654  0.1010E+01  0.8674E+02
     90.918  0.1067E+01  0.8703E+02
     91.183  0.1112E+01  0.8732E+02
     91.447  0.1119E+01  0.8762E+02
     91.712  0.1134E+01  0.8792E+02
     91.976  0.1066E+01  0.8820E+02
     92.241  0.1116E+01  0.8849E+02
     92.505  0.1169E+01  0.8880E+02
     92.770  0.1482E+01  0.8920E+02
     93.034  0.1177E+01  0.8951E+02
     93.299  0.1104E+01  0.8980E+02
     93.563  0.1270E+01  0.9013E+02
     93.827  0.1067E+01  0.9042E+02
     94.092  0.8120E+00  0.9063E+02
     94.356  0.7025E+00  0.9082E+02
     94.621  0.7757E+00  0.9102E+02
     94.885  0.7171E+00  0.9121E+02
     95.150  0.1270E+01  0.9155E+02
     95.414  0.9109E+00  0.9179E+02
     95.679  0.1074E+01  0.9207E+02
     95.943  0.1333E+01  0.9243E+02
     96.208  0.1390E+01  0.9279E+02
     96.472  0.1255E+01  0.9312E+02
     96.737  0.1428E+01  0.9350E+02
     97.001  0.1142E+01  0.9380E+02
     97.266  0.1158E+01  0.9411E+02
     97.530  0.1247E+01  0.9444E+02
     97.795  0.1192E+01  0.9476E+02
     98.059  0.1344E+01  0.9511E+02
     98.324  0.1337E+01  0.9546E+02
     98.588  0.1251E+01  0.9580E+02
     98.853  0.1163E+01  0.9610E+02
     99.117  0.9902E+00  0.9637E+02
     99.382  0.1011E+01  0.9663E+02
     99.646  0.1735E+01  0.9709E+02
     99.911  0.1438E+01  0.9747E+02
    100.175  0.1444E+01  0.9785E+02
    100.439  0.1028E+01  0.9813E+02
    100.704  0.1069E+01  0.9841E+02
    100.968  0.1323E+01  0.9876E+02
    101.233  0.1252E+01  0.9909E+02
    101.497  0.1150E+01  0.9939E+02
    101.762  0.1198E+01  0.9971E+02
    102.026  0.1650E+01  0.1001E+03
    102.291  0.1205E+01  0.1005E+03
    102.555  0.1261E+01  0.1008E+03
    102.820  0.1450E+01  0.1012E+03
    103.084  0.1254E+01  0.1015E+03
    103.349  0.1467E+01  0.1019E+03
    103.613  0.1546E+01  0.1023E+03
    103.878  0.1352E+01  0.1027E+03
    104.142  0.1151E+01  0.1030E+03
    104.407  0.1143E+01  0.1033E+03
    104.671  0.1148E+01  0.1036E+03
    104.936  0.1296E+01  0.1039E+03
    105.200  0.1332E+01  0.1043E+03
    105.465  0.1454E+01  0.1047E+03
    105.729  0.1382E+01  0.1050E+03
    105.994  0.1115E+01  0.1053E+03
    106.258  0.1240E+01  0.1056E+03
    106.523  0.1219E+01  0.1060E+03
    106.787  0.1026E+01  0.1062E+03
    107.051  0.1032E+01  0.1065E+03
    107.316  0.1175E+01  0.1068E+03
    107.580  0.1001E+01  0.1071E+03
    107.845  0.1037E+01  0.1074E+03
    108.109  0.9086E+00  0.1076E+03
    108.374  0.1065E+01  0.1079E+03
    108.638  0.8753E+00  0.1081E+03
    108.903  0.9401E+00  0.1084E+03
    109.167  0.1082E+01  0.1087E+03
    109.432  0.1350E+01  0.1090E+03
    109.696  0.1322E+01  0.1094E+03
    109.961  0.1145E+01  0.1097E+03
    110.225  0.1013E+01  0.1099E+03
    110.490  0.9452E+00  0.1102E+03
    110.754  0.9274E+00  0.1104E+03
    111.019  0.9980E+00  0.1107E+03
    111.283  0.1106E+01  0.1110E+03
    111.548  0.1043E+01  0.1113E+03
    111.812  0.8458E+00  0.1115E+03
    112.077  0.7776E+00  0.1117E+03
    112.341  0.7221E+00  0.1119E+03
    112.606  0.7664E+00  0.1121E+03
    112.870  0.9138E+00  0.1123E+03
    113.135  0.1127E+01  0.1126E+03
    113.399  0.1527E+01  0.1130E+03
    113.663  0.1445E+01  0.1134E+03
    113.928  0.1338E+01  0.1138E+03
    114.192  0.1180E+01  0.1141E+03
    114.457  0.1107E+01  0.1144E+03
    114.721  0.9930E+00  0.1146E+03
    114.986  0.1087E+01  0.1149E+03
    115.250  0.1227E+01  0.1152E+03
    115.515  0.1356E+01  0.1156E+03
    115.779  0.1382E+01  0.1160E+03
    116.044  0.1083E+01  0.1162E+03
    116.308  0.9494E+00  0.1165E+03
    116.573  0.7506E+00  0.1167E+03
    116.837  0.7530E+00  0.1169E+03
    117.102  0.7566E+00  0.1171E+03
    117.366  0.7356E+00  0.1173E+03
    117.631  0.7028E+00  0.1175E+03
    117.895  0.5934E+00  0.1176E+03
    118.160  0.4839E+00  0.1178E+03
    118.424  0.3990E+00  0.1179E+03
    118.689  0.3662E+00  0.1180E+03
    118.953  0.3013E+00  0.1180E+03
    119.218  0.3167E+00  0.1181E+03
    119.482  0.3687E+00  0.1182E+03
    119.747  0.2818E+00  0.1183E+03
    120.011  0.3613E+00  0.1184E+03
    120.275  0.1995E+00  0.1184E+03
    120.540  0.2997E+00  0.1185E+03
    120.804  0.1365E+00  0.1186E+03
    121.069  0.1652E+00  0.1186E+03
    121.333  0.1554E+00  0.1186E+03
    121.598  0.1028E+00  0.1187E+03
    121.862  0.1453E+00  0.1187E+03
    122.127  0.7764E-01  0.1187E+03
    122.391  0.4041E-01  0.1187E+03
    122.656  0.5764E-01  0.1188E+03
    122.920  0.3383E-01  0.1188E+03
    123.185  0.5952E-01  0.1188E+03
    123.449  0.1557E-01  0.1188E+03
    123.714  0.2403E-01  0.1188E+03
    123.978  0.5627E-01  0.1188E+03
    124.243  0.2447E-01  0.1188E+03
    124.507  0.8926E-02  0.1188E+03
    124.772  0.7812E-02  0.1188E+03
    125.036  0.1134E-01  0.1188E+03
    125.301  0.1102E-03  0.1188E+03
    125.565  0.1234E-01  0.1188E+03
    125.830  0.1593E-02  0.1188E+03
    126.094  0.1004E-01  0.1188E+03
    126.359  0.3955E-02  0.1188E+03
    126.623  0.1112E-06  0.1188E+03
    126.887  0.0000E+00  0.1188E+03
    127.152  0.6996E-17  0.1188E+03
    127.416  0.1237E-06  0.1188E+03
    127.681  0.4066E-02  0.1188E+03
    127.945  0.9927E-02  0.1188E+03
    128.210  0.1003E-04  0.1188E+03
    128.474  0.2980E-13  0.1188E+03
    128.739  0.0000E+00  0.1188E+03
    129.003  0.0000E+00  0.1188E+03
    129.268  0.0000E+00  0.1188E+03
    129.532  0.0000E+00  0.1188E+03
    129.797  0.0000E+00  0.1188E+03
    130.061  0.0000E+00  0.1188E+03
    130.326  0.0000E+00  0.1188E+03
    130.590  0.0000E+00  0.1188E+03
    130.855  0.0000E+00  0.1188E+03
    131.119  0.0000E+00  0.1188E+03
    131.384  0.0000E+00  0.1188E+03
    131.648  0.0000E+00  0.1188E+03
    131.913  0.0000E+00  0.1188E+03
    132.177  0.0000E+00  0.1188E+03
    132.442  0.0000E+00  0.1188E+03
    132.706  0.0000E+00  0.1188E+03
    132.971  0.2393E-12  0.1188E+03
    133.235  0.2723E-04  0.1188E+03
    133.500  0.1122E-01  0.1188E+03
    133.764  0.2755E-02  0.1188E+03
    134.028  0.3050E-07  0.1188E+03
    134.293  0.0000E+00  0.1188E+03
    134.557  0.0000E+00  0.1188E+03
    134.822  0.0000E+00  0.1188E+03
    135.086  0.1353E-09  0.1188E+03
    135.351  0.4231E-03  0.1188E+03
    135.615  0.1314E-01  0.1188E+03
    135.880  0.4377E-03  0.1188E+03
    136.144  0.1475E-09  0.1188E+03
    136.409  0.0000E+00  0.1188E+03
    136.673  0.0000E+00  0.1188E+03
    136.938  0.2391E-07  0.1188E+03
    137.202  0.2563E-02  0.1188E+03
    137.467  0.1141E-01  0.1188E+03
    137.731  0.3427E-02  0.1188E+03
    137.996  0.1059E-01  0.1189E+03
    138.260  0.1646E-04  0.1189E+03
    138.525  0.8287E-13  0.1189E+03
    138.789  0.0000E+00  0.1189E+03
    139.054  0.0000E+00  0.1189E+03
    139.318  0.0000E+00  0.1189E+03
    139.583  0.0000E+00  0.1189E+03
    139.847  0.0000E+00  0.1189E+03
    140.112  0.0000E+00  0.1189E+03
    140.376  0.0000E+00  0.1189E+03
    140.640  0.0000E+00  0.1189E+03
    140.905  0.0000E+00  0.1189E+03
    141.169  0.0000E+00  0.1189E+03
    141.434  0.0000E+00  0.1189E+03
    141.698  0.0000E+00  0.1189E+03
    141.963  0.0000E+00  0.1189E+03
    142.227  0.0000E+00  0.1189E+03
    142.492  0.0000E+00  0.1189E+03
    142.756  0.0000E+00  0.1189E+03
    143.021  0.0000E+00  0.1189E+03
    143.285  0.0000E+00  0.1189E+03
    143.550  0.0000E+00  0.1189E+03
    143.814  0.0000E+00  0.1189E+03
    144.079  0.0000E+00  0.1189E+03
    144.343  0.0000E+00  0.1189E+03
    144.608  0.0000E+00  0.1189E+03
    144.872  0.0000E+00  0.1189E+03
    145.137  0.0000E+00  0.1189E+03
    145.401  0.0000E+00  0.1189E+03
    145.666  0.0000E+00  0.1189E+03
    145.930  0.0000E+00  0.1189E+03
    146.195  0.0000E+00  0.1189E+03
    146.459  0.0000E+00  0.1189E+03
    146.724  0.0000E+00  0.1189E+03
    146.988  0.0000E+00  0.1189E+03
    147.252  0.0000E+00  0.1189E+03
    147.517  0.0000E+00  0.1189E+03
    147.781  0.0000E+00  0.1189E+03
    148.046  0.0000E+00  0.1189E+03
    148.310  0.0000E+00  0.1189E+03
    148.575  0.0000E+00  0.1189E+03
    148.839  0.0000E+00  0.1189E+03
    149.104  0.0000E+00  0.1189E+03
    149.368  0.0000E+00  0.1189E+03
    149.633  0.0000E+00  0.1189E+03
    149.897  0.0000E+00  0.1189E+03
    150.162  0.0000E+00  0.1189E+03
    150.426  0.0000E+00  0.1189E+03
    150.691  0.0000E+00  0.1189E+03
    150.955  0.0000E+00  0.1189E+03
    151.220  0.0000E+00  0.1189E+03
    151.484  0.0000E+00  0.1189E+03
    151.749  0.0000E+00  0.1189E+03
    152.013  0.0000E+00  0.1189E+03
    152.278  0.0000E+00  0.1189E+03
    152.542  0.0000E+00  0.1189E+03
    152.807  0.0000E+00  0.1189E+03
    153.071  0.0000E+00  0.1189E+03
    153.336  0.0000E+00  0.1189E+03
    153.600  0.0000E+00  0.1189E+03
    153.864  0.0000E+00  0.1189E+03
    154.129  0.0000E+00  0.1189E+03
    154.393  0.0000E+00  0.1189E+03
    154.658  0.0000E+00  0.1189E+03
    154.922  0.0000E+00  0.1189E+03
    155.187  0.0000E+00  0.1189E+03
    155.451  0.0000E+00  0.1189E+03
    155.716  0.0000E+00  0.1189E+03
    155.980  0.0000E+00  0.1189E+03
    156.245  0.0000E+00  0.1189E+03
    156.509  0.0000E+00  0.1189E+03
    156.774  0.0000E+00  0.1189E+03
    157.038  0.0000E+00  0.1189E+03
    157.303  0.0000E+00  0.1189E+03
    157.567  0.0000E+00  0.1189E+03
    157.832  0.0000E+00  0.1189E+03
    158.096  0.0000E+00  0.1189E+03
    158.361  0.8068E-14  0.1189E+03
    158.625  0.5251E-05  0.1189E+03
    158.890  0.9016E-02  0.1189E+03
    159.154  0.4983E-02  0.1189E+03
    159.419  0.2771E-06  0.1189E+03
    159.683  0.5839E-14  0.1189E+03
    159.948  0.4463E-05  0.1189E+03
    160.212  0.8782E-02  0.1189E+03
    160.476  0.5216E-02  0.1189E+03
    160.741  0.3356E-06  0.1189E+03
    161.005  0.0000E+00  0.1189E+03
    161.270  0.0000E+00  0.1189E+03
    161.534  0.0000E+00  0.1189E+03
    161.799  0.1011E-12  0.1189E+03
    162.063  0.1812E-04  0.1189E+03
    162.328  0.1285E-01  0.1189E+03
    162.592  0.1510E-01  0.1189E+03
    162.857  0.4674E-04  0.1189E+03
    163.121  0.7660E-12  0.1189E+03
    163.386  0.2177E-16  0.1189E+03
    163.650  0.2376E-06  0.1189E+03
    163.915  0.4800E-02  0.1189E+03
    164.179  0.9198E-02  0.1189E+03
    164.444  0.5965E-05  0.1189E+03
    164.708  0.1041E-13  0.1189E+03
    164.973  0.0000E+00  0.1189E+03
    165.237  0.0000E+00  0.1189E+03
    165.502  0.0000E+00  0.1189E+03
    165.766  0.0000E+00  0.1189E+03
    166.031  0.0000E+00  0.1189E+03
    166.295  0.9691E-08  0.1189E+03
    166.560  0.1940E-02  0.1189E+03
    166.824  0.1201E-01  0.1189E+03
    167.088  0.5580E-04  0.1189E+03
    167.353  0.1134E-11  0.1189E+03
    167.617  0.0000E+00  0.1189E+03
    167.882  0.0000E+00  0.1189E+03
    168.146  0.0000E+00  0.1189E+03
    168.411  0.0000E+00  0.1189E+03
    168.675  0.0000E+00  0.1189E+03
    168.940  0.0000E+00  0.1189E+03
    169.204  0.0000E+00  0.1189E+03
    169.469  0.0000E+00  0.1189E+03
    169.733  0.0000E+00  0.1189E+03
    169.998  0.0000E+00  0.1189E+03
    170.262  0.0000E+00  0.1189E+03
    170.527  0.0000E+00  0.1189E+03
    170.791  0.1555E-17  0.1189E+03
    171.056  0.5697E-07  0.1189E+03
    171.320  0.3296E-02  0.1189E+03
    171.585  0.1069E-01  0.1189E+03
    171.849  0.1775E-04  0.1189E+03
    172.114  0.9703E-13  0.1189E+03
    172.378  0.0000E+00  0.1189E+03
    172.643  0.0000E+00  0.1189E+03
    172.907  0.0000E+00  0.1189E+03
    173.172  0.0000E+00  0.1189E+03
    173.436  0.0000E+00  0.1189E+03
    173.700  0.0000E+00  0.1189E+03
    173.965  0.0000E+00  0.1189E+03
    174.229  0.0000E+00  0.1189E+03
    174.494  0.0000E+00  0.1189E+03
    174.758  0.0000E+00  0.1189E+03
    175.023  0.0000E+00  0.1189E+03
    175.287  0.0000E+00  0.1189E+03
    175.552  0.0000E+00  0.1189E+03
    175.816  0.0000E+00  0.1189E+03
    176.081  0.0000E+00  0.1189E+03
    176.345  0.0000E+00  0.1189E+03
    176.610  0.0000E+00  0.1189E+03
    176.874  0.0000E+00  0.1189E+03
    177.139  0.0000E+00  0.1189E+03
    177.403  0.0000E+00  0.1189E+03
    177.668  0.0000E+00  0.1189E+03
    177.932  0.0000E+00  0.1189E+03
    178.197  0.0000E+00  0.1189E+03
    178.461  0.0000E+00  0.1189E+03
    178.726  0.0000E+00  0.1189E+03
    178.990  0.0000E+00  0.1189E+03
    179.255  0.0000E+00  0.1189E+03